/*--------------------------------*- C++ -*----------------------------------*\
| =========                 |                                                 |
| \\      /  F ield         | OpenFOAM: The Open Source CFD Toolbox           |
|  \\    /   O peration     | Version:  10.0                                  |
|   \\  /    A nd           | Web:      www.OpenFOAM.org                      |
|    \\/     M anipulation  |                                                 |
\*---------------------------------------------------------------------------*/
FoamFile
{
    version     2.0;
    format      ascii;
    class       volScalarField;
    location    "0";
    object      p;
}
// * * * * * * * * * * * * * * * * * * * * * * * * * * * * * * * * * * * * * //

dimensions      [1 -1 -2 0 0 0 0];

internalField   uniform 76631.0;

boundaryField
{
    atm
    {
        type            calculated;
        value           $internalField;
    }
    top
    {
        type            fixedValue;
        value           uniform 76631.0;
    }
    terrain_out
    {
        type            calculated;
        value           $internalField;
    }
    terrain_in
    {
        type            calculated;
        value           $internalField;
    }
}


// ************************************************************************* //
